# vtk DataFile Version 4.2
vtk output
ASCII
DATASET UNSTRUCTURED_GRID
POINTS 5 float
1.6109 -0.158545 0.126592 1.65152 -0.190182 0.126594 1.69426 -0.21927 0.126597 
1.53454 -0.0882311 0.126587 1.46232 -0.00937041 0.126583 
METADATA
INFORMATION 2
NAME L2_NORM_RANGE LOCATION vtkDataArray
DATA 2 1.46782 1.71307 
NAME L2_NORM_FINITE_RANGE LOCATION vtkDataArray
DATA 2 1.46782 1.71307 

CELLS 4 12
2 0 1 
2 1 2 
2 3 0 
2 4 3 

CELL_TYPES 4
3
3
3
3

CELL_DATA 4
SCALARS STLSolidLabeling float
LOOKUP_TABLE default
0 0 0 0 
METADATA
INFORMATION 0

FIELD FieldData 1
vtkOriginalCellIds 1 4 vtkIdType
495 496 499 500 
POINT_DATA 5
FIELD FieldData 1
vtkOriginalPointIds 1 5 vtkIdType
476 477 478 480 457 
