# vtk DataFile Version 4.2
vtk output
ASCII
DATASET UNSTRUCTURED_GRID
POINTS 3 float
2.02543 -0.00160271 0.244546 1.94942 -0.00160271 0.239841 1.87626 -0.00160271 0.222016 

METADATA
INFORMATION 2
NAME L2_NORM_RANGE LOCATION vtkDataArray
DATA 2 1.88935 2.04014 
NAME L2_NORM_FINITE_RANGE LOCATION vtkDataArray
DATA 2 1.88935 2.04014 

CELLS 2 6
2 0 1 
2 1 2 

CELL_TYPES 2
3
3

CELL_DATA 2
SCALARS STLSolidLabeling float
LOOKUP_TABLE default
0 0 
METADATA
INFORMATION 0

FIELD FieldData 1
vtkOriginalCellIds 1 2 vtkIdType
538 540 
POINT_DATA 3
FIELD FieldData 1
vtkOriginalPointIds 1 3 vtkIdType
518 519 520 
