# vtk DataFile Version 4.2
vtk output
ASCII
DATASET UNSTRUCTURED_GRID
POINTS 17 float
1.75813 -0.223522 0.127399 1.77906 -0.223522 0.133851 1.80236 -0.223522 0.143267 
1.81688 -0.223522 0.150263 1.74237 -0.223522 0.123843 1.86033 -0.223522 0.175694 
1.89076 -0.223522 0.195775 1.90941 -0.223522 0.207773 1.92878 -0.223522 0.219065 
1.9322 -0.223522 0.22088 1.93889 -0.223522 0.224269 1.9644 -0.223522 0.234809 
1.97184 -0.223522 0.237139 1.94938 -0.223522 0.229073 1.96033 -0.223522 0.233392 
1.99259 -0.223522 0.241887 2.02543 -0.223522 0.244546 
METADATA
INFORMATION 2
NAME L2_NORM_RANGE LOCATION vtkDataArray
DATA 2 1.76101 2.05235 
NAME L2_NORM_FINITE_RANGE LOCATION vtkDataArray
DATA 2 1.76101 2.05235 

CELLS 16 48
2 0 1 
2 1 2 
2 2 3 
2 4 0 
2 3 5 
2 5 6 
2 6 7 
2 7 8 
2 8 9 
2 9 10 
2 11 12 
2 10 13 
2 13 14 
2 14 11 
2 12 15 
2 15 16 

CELL_TYPES 16
3
3
3
3
3
3
3
3
3
3
3
3
3
3
3
3

CELL_DATA 16
SCALARS STLSolidLabeling float
LOOKUP_TABLE default
0 0 0 0 0 0 0 0 0 
0 0 0 0 0 0 0 
METADATA
INFORMATION 0

FIELD FieldData 1
vtkOriginalCellIds 1 16 vtkIdType
544 545 546 552 553 554 555 556 557 
558 559 561 562 563 564 565 
POINT_DATA 17
FIELD FieldData 1
vtkOriginalPointIds 1 17 vtkIdType
524 525 526 527 533 534 535 536 537 
538 539 540 541 543 544 545 546 
