# vtk DataFile Version 4.2
vtk output
ASCII
DATASET UNSTRUCTURED_GRID
POINTS 3 float
1.57342 -0.00160271 0.123363 1.52551 -0.00160271 0.120587 1.65431 -0.00160271 0.139822 

METADATA
INFORMATION 2
NAME L2_NORM_RANGE LOCATION vtkDataArray
DATA 2 1.53027 1.66021 
NAME L2_NORM_FINITE_RANGE LOCATION vtkDataArray
DATA 2 1.53027 1.66021 

CELLS 2 6
2 0 1 
2 2 0 

CELL_TYPES 2
3
3

CELL_DATA 2
SCALARS STLSolidLabeling float
LOOKUP_TABLE default
0 0 
METADATA
INFORMATION 0

FIELD FieldData 1
vtkOriginalCellIds 1 2 vtkIdType
532 537 
POINT_DATA 3
FIELD FieldData 1
vtkOriginalPointIds 1 3 vtkIdType
512 513 517 
