# vtk DataFile Version 4.2
vtk output
ASCII
DATASET UNSTRUCTURED_GRID
POINTS 4 float
1.78009 -0.265175 0.126602 1.82727 -0.28374 0.126605 1.69426 -0.21927 0.126597 
1.73642 -0.243849 0.1266 
METADATA
INFORMATION 2
NAME L2_NORM_RANGE LOCATION vtkDataArray
DATA 2 1.71307 1.8535 
NAME L2_NORM_FINITE_RANGE LOCATION vtkDataArray
DATA 2 1.71307 1.8535 

CELLS 3 9
2 0 1 
2 2 3 
2 3 0 

CELL_TYPES 3
3
3
3

CELL_DATA 3
SCALARS STLSolidLabeling float
LOOKUP_TABLE default
0 0 0 
METADATA
INFORMATION 0

FIELD FieldData 1
vtkOriginalCellIds 1 3 vtkIdType
481 497 498 
POINT_DATA 4
FIELD FieldData 1
vtkOriginalPointIds 1 4 vtkIdType
461 462 478 479 
