# vtk DataFile Version 4.2
vtk output
ASCII
DATASET UNSTRUCTURED_GRID
POINTS 2 float
1.82727 -0.28374 0.126605 1.87604 -0.298388 0.126608 
METADATA
INFORMATION 2
NAME L2_NORM_RANGE LOCATION vtkDataArray
DATA 2 1.8535 1.90384 
NAME L2_NORM_FINITE_RANGE LOCATION vtkDataArray
DATA 2 1.8535 1.90384 

CELLS 1 3
2 0 1 

CELL_TYPES 1
3

CELL_DATA 1
SCALARS STLSolidLabeling float
LOOKUP_TABLE default
0 
METADATA
INFORMATION 0

FIELD FieldData 1
vtkOriginalCellIds 1 1 vtkIdType
484 
POINT_DATA 2
FIELD FieldData 1
vtkOriginalPointIds 1 2 vtkIdType
462 465 
