/*--------------------------------*- C++ -*----------------------------------*\
  =========                 |
  \\      /  F ield         | OpenFOAM: The Open Source CFD Toolbox
   \\    /   O peration     | Website:  https://openfoam.org
    \\  /    A nd           | Version:  8
     \\/     M anipulation  |
\*---------------------------------------------------------------------------*/
FoamFile
{
    version     2.0;
    format      ascii;
    class       volScalarField;
    location    "0/fluid";
    object      yPlus;
}
// * * * * * * * * * * * * * * * * * * * * * * * * * * * * * * * * * * * * * //

dimensions      [0 0 0 0 0 0 0];

internalField   uniform 0;

boundaryField
{
    rightSide
    {
        type            calculated;
        value           uniform 0;
    }
    leftSide
    {
        type            calculated;
        value           uniform 0;
    }
    ground
    {
        type            calculated;
        value           uniform 0;
    }
    upperWall
    {
        type            calculated;
        value           uniform 0;
    }
    outlet
    {
        type            calculated;
        value           uniform 0;
    }
    inlet
    {
        type            calculated;
        value           uniform 0;
    }
    bod
    {
        type            calculated;
        value           nonuniform List<scalar> 
14085
(
14.4116
14.4138
14.4138
14.4136
13.0173
12.9654
12.9267
12.9266
12.9574
13.0048
29.3913
14.4138
14.4175
29.355
23.7421
29.675
23.7105
29.6664
23.7303
29.6726
14.4139
14.4138
23.7101
29.6672
23.7102
29.667
23.7231
29.67
23.7098
29.6666
23.7346
29.6719
29.3708
29.3817
27.6391
25.9632
25.8463
25.8426
25.8461
25.8426
25.8431
25.8452
25.8421
27.6157
25.8455
25.9503
26.0394
26.0586
26.0653
26.0586
26.0447
26.0229
26.0447
26.0508
18.3602
25.8348
25.8302
25.8345
25.8348
25.8292
25.8345
31.5389
12.9263
12.9263
12.9258
12.9261
12.9263
12.9261
12.8529
11.2328
27.5364
27.4552
27.4539
27.4546
27.4529
27.4534
27.4546
27.4534
27.4551
27.5146
25.8771
25.7625
25.8624
25.7712
15.6675
14.3542
14.4757
14.4138
14.4138
14.5202
14.5423
25.875
25.7627
25.8916
25.7712
25.7599
25.7617
25.7703
25.7699
25.7599
25.7604
25.7694
25.7694
25.7617
25.7594
25.7703
25.7694
13.6788
31.5111
32.1621
32.1881
32.3241
32.2085
32.1615
32.1608
32.1606
32.1608
32.1606
32.1606
32.1606
32.1606
32.1606
32.1606
32.1607
32.1606
32.1617
32.161
32.157
32.1609
32.162
32.1653
32.1954
32.1642
32.2389
33.7947
28.5852
28.6345
33.5154
28.7632
28.6237
29.8722
32.4824
25.9972
29.0327
26.8582
16.7752
29.8218
30.8448
30.9728
30.8049
30.8076
30.8323
30.8094
30.8042
30.8032
30.8039
30.803
30.821
30.8077
30.8051
30.8066
30.8272
29.6181
17.8159
28.5143
32.9228
34.9286
32.8759
32.8875
26.1824
27.6505
31.8821
37.4613
28.8553
14.4141
14.4134
23.9963
29.7351
30.5913
31.3201
29.7114
31.278
31.2815
29.6689
31.2879
31.3214
29.6692
31.2856
14.4137
14.4137
31.2817
29.6664
31.2807
31.2809
29.6666
31.2814
31.3109
29.6684
31.2862
31.2819
29.6678
31.2834
12.4675
31.3373
29.7037
31.508
24.2418
24.2418
29.7176
32.0159
35.0602
21.5757
18.5644
34.659
27.6339
31.7878
32.3582
26.3346
31.8138
25.8592
25.8535
25.8426
25.844
25.8426
25.8421
25.8426
25.8426
16.8321
13.0837
33.2601
31.1739
36.3453
25.8511
25.8568
26.0424
32.6017
32.5948
26.046
32.5328
32.5957
32.6033
26.0467
32.6051
26.0467
32.6024
32.6051
26.093
37.5592
26.736
32.2726
32.073
27.5296
29.7453
26.8904
26.0357
36.5157
37.0103
26.2386
31.8954
28.3721
28.2391
28.3827
28.3886
28.3916
28.3891
28.3921
28.3921
28.3927
28.3916
28.3918
28.3907
28.3834
28.3899
15.632
14.6645
18.1985
28.3719
28.2406
26.1254
32.5971
32.5618
27.6659
35.1786
30.02
35.391
13.9351
13.9361
13.9351
13.9352
13.9405
13.9363
13.942
12.908
12.908
12.908
30.383
14.24
14.2402
30.3822
14.24
14.24
30.3883
14.2412
14.2414
30.4683
14.2417
14.247
12.9983
18.4861
18.5233
18.4783
13.0074
18.4771
18.4767
18.4776
12.8844
18.4839
18.4838
14.6723
17.8367
30.0337
34.9245
14.4287
14.4138
14.4138
14.418
13.9024
14.0157
13.9155
25.9197
26.6847
25.8448
27.7411
16.4432
12.93
12.929
13.9495
13.8688
13.9427
13.9365
13.9351
13.9351
13.9354
13.9355
30.4884
14.2403
14.2535
30.3927
14.2432
14.2407
30.3819
14.24
14.24
30.3826
14.24
14.24
28.6151
25.9093
25.9328
28.6198
28.6644
28.5485
30.898
25.9865
34.4099
31.1599
25.94
28.6901
26.9263
14.4138
14.4126
13.0099
23.8979
23.7114
23.7106
18.4838
18.4776
14.4137
14.4138
23.7107
12.9967
12.9967
23.7102
23.7102
12.9964
23.7102
18.4773
23.9356
18.485
32.7721
29.1836
25.8491
26.4555
26.0824
31.196
36.095
31.911
26.0593
32.0029
32.012
26.0559
32.0039
26.0612
32.0103
32.0156
32.0129
26.0604
32.0156
28.8106
25.8335
25.9519
26.4121
21.0766
31.9132
27.69
27.8964
17.1676
21.5549
14.6791
29.0119
37.0048
31.4781
27.7056
31.849
27.846
14.0179
14.0179
14.0176
14.0179
18.9326
18.3052
35.4414
12.8913
14.9499
14.1772
14.1772
14.9574
14.9576
14.9577
14.9576
14.194
13.3547
30.3834
14.24
14.2395
14.9577
14.9577
14.9577
14.9577
14.9574
14.9571
14.9562
14.9569
30.3819
14.24
14.24
30.3874
14.2407
14.2414
14.9737
14.9547
14.9559
14.955
30.6164
14.2887
14.2472
28.4674
28.4702
25.8897
25.8864
28.5001
28.4725
25.9205
25.8869
31.1193
31.0482
31.0245
31.0335
31.0225
31.024
31.0259
31.0233
31.0233
31.0235
31.0235
31.0229
31.0238
31.0231
31.0223
31.0242
31.0257
31.0296
31.1036
31.0466
32.1119
32.1109
26.0546
26.0519
32.1926
26.157
32.1175
26.0606
32.1123
32.1129
26.0514
26.0515
32.1184
32.1132
26.0525
26.0515
14.0247
14.019
14.0193
14.0182
18.2325
14.0185
14.0176
14.0206
14.0185
30.9175
27.0924
27.084
30.921
30.8618
26.8457
30.6264
27.027
19.119
19.119
26.4677
23.87
28.4827
25.2505
20.3509
20.3509
20.6316
20.6316
22.7453
24.5093
22.7452
20.6316
20.6316
24.5092
20.6316
20.6316
22.7452
24.5092
22.7452
24.5092
20.6316
20.6316
20.6314
20.6314
22.7454
24.5093
24.5094
20.6316
20.6316
22.7459
20.6286
20.6286
24.5099
22.749
24.5096
22.7474
20.6258
20.6258
12.3446
26.817
27.0788
26.8069
12.5051
26.537
26.1222
12.2852
12.5534
12.5719
27.0202
12.129
20.6334
20.6334
22.7482
24.57
22.75
20.6273
20.6273
24.542
20.6346
20.6346
22.7519
24.5304
22.7512
24.5329
20.6333
20.6333
20.6008
20.6008
22.7444
24.6268
24.728
20.6224
20.6224
22.7373
20.5273
20.5273
25.3224
22.6901
24.8581
22.7228
20.4284
20.4284
26.6185
12.3017
26.6136
27.052
13.9294
14.4111
14.4138
14.4138
14.4243
11.3439
11.3439
24.7839
24.7839
13.9236
13.9236
24.7821
26.7655
34.0497
27.7083
28.9668
24.4673
24.4673
12.4856
12.4856
17.2252
16.9391
7.09184
7.52717
7.52717
12.8353
29.808
25.139
24.7185
25.4229
25.4229
29.4787
34.4921
32.3797
27.5933
28.7702
29.8258
37.1514
33.3414
30.0728
36.7526
35.7025
39.5678
32.1645
32.1764
32.4504
32.2746
28.431
28.423
28.4653
28.4109
32.1623
32.1688
32.1619
32.1619
32.1619
32.1619
32.1618
32.1619
28.4223
28.4346
28.4293
28.4292
28.4294
28.4294
28.4294
28.4294
32.1618
32.1618
32.1619
32.1619
32.1626
32.1624
32.1658
32.1621
28.4294
28.4294
28.4294
28.4294
28.4301
28.4301
28.4298
28.4299
32.1573
32.1715
32.1833
32.1713
32.3471
32.7215
28.4256
28.4379
28.4415
28.4378
28.6126
29.0762
30.2251
36.7308
35.3678
29.381
33.1804
27.4916
33.0606
30.2681
31.3324
25.9595
29.7423
29.9483
25.8894
37.3354
35.0728
31.8559
29.2883
32.5051
32.4147
32.3507
32.3726
32.6614
32.0706
30.6926
27.0588
30.8626
26.9607
32.3217
32.3246
32.3369
32.3289
32.3218
32.319
32.3191
32.3194
32.3186
32.3178
32.3183
32.3182
32.3176
32.3188
32.3183
32.3186
32.3202
32.3188
32.3188
32.3187
32.3287
32.33
32.3405
32.3343
26.9866
30.5556
26.806
30.7504
27.0481
30.8018
30.8108
27.0567
27.0322
29.7659
26.2199
30.1473
20.6357
20.6357
22.7449
24.5188
22.7499
20.629
20.629
24.511
20.6318
20.6318
22.7452
24.5092
22.7453
20.6317
20.6317
24.5101
20.6068
20.6068
22.7527
24.5287
24.565
22.7578
20.6286
20.6286
20.5596
20.5596
25.0627
22.9891
20.4563
20.4563
24.6694
22.7937
32.6009
32.7474
30.025
30.3532
31.4395
27.1383
23.9454
23.9454
23.1131
32.4732
32.408
32.3551
32.3731
27.4596
33.7482
31.1125
31.202
27.07
30.7483
27.0459
30.6471
25.9162
29.7346
25.8607
29.8848
20.8829
18.7311
31.4026
22.2696
22.2696
22.257
22.3156
22.3156
22.4674
22.2549
22.2549
22.2492
22.2504
22.2504
22.2484
14.2906
17.8037
17.2978
17.2081
30.8802
17.173
17.1961
30.9035
17.3121
17.161
30.8051
17.161
17.1603
30.8062
17.1625
17.1646
30.8188
17.1766
17.1662
30.8145
17.1612
17.161
30.8031
17.161
17.161
30.8036
17.161
17.161
30.8032
17.161
17.161
30.8034
17.161
17.1649
30.8146
17.1713
17.1646
30.8114
17.161
17.161
30.8042
17.161
17.161
30.8058
17.161
20.6366
20.6366
22.7508
24.5188
22.7521
20.6358
20.6358
24.5206
20.6368
20.6368
22.7525
24.5228
22.7529
20.6386
20.6386
24.5227
20.6334
20.6334
22.7508
24.5154
24.5131
22.7505
20.6347
20.6347
20.6297
20.6297
24.5102
22.7498
20.6262
20.6262
24.5114
22.75
22.2479
22.2479
22.2476
22.2459
22.2459
22.2405
22.2504
22.2504
22.2484
22.2504
22.2504
22.2484
22.0695
22.0695
21.9115
22.1801
22.1801
22.2256
17.1869
30.8113
17.1737
17.1902
30.7504
17.2439
11.134
11.134
10.6813
10.6813
19.3821
15.6758
26.6962
26.6488
26.5779
12.2484
11.715
11.715
11.4144
17.2473
12.4575
14.9894
14.9614
14.9553
14.9556
14.957
14.9573
14.9564
14.9568
30.6251
14.2892
14.2463
30.3912
14.2398
14.2421
14.9577
14.9577
14.9577
14.9577
14.9575
14.9576
14.9577
14.9576
30.3819
14.24
14.24
30.3826
14.24
14.24
26.6665
26.9127
12.1551
26.7704
27.0053
12.0118
12.2008
12.4311
14.4299
11.9844
11.4854
11.4854
16.8836
16.8836
16.7142
12.0085
12.1668
20.5005
19.519
19.519
25.3416
22.5973
20.3011
20.3011
25.7995
22.3701
26.6295
11.8609
5.82169
12.5795
11.5949
8.201
8.201
31.0906
26.8419
12.3603
27.1366
26.8238
27.1016
26.7748
26.8875
12.3026
11.7637
14.2731
32.6387
10.8729
10.8729
12.1277
26.2624
26.4398
12.5313
26.6148
19.7836
26.6446
6.13494
26.7682
12.1753
27.0758
12.2174
12.5943
27.1235
12.5451
12.2961
26.7521
12.1674
27.1263
12.2225
12.5756
27.0909
12.5263
12.2995
26.6773
12.306
26.7075
27.0975
26.7142
12.5478
27.1212
26.7433
12.302
12.575
12.5691
12.1281
27.1199
26.6616
26.5739
12.3098
26.7003
27.097
12.1717
12.5849
12.2173
33.0511
33.4678
32.8602
32.8622
36.5519
32.1194
28.769
36.3819
29.7048
29.1024
27.3313
33.2422
32.5078
29.885
32.1986
36.6939
14.4134
14.4148
12.7513
27.715
8.3512
31.3693
14.2777
14.1002
31.3264
14.2554
14.2717
31.2838
14.2723
31.282
14.272
14.2778
31.2939
14.272
31.2969
26.6764
26.6741
26.6429
26.6437
26.6429
26.6429
26.6434
26.6429
14.4137
14.4138
31.2799
14.2714
14.2711
14.2717
31.2796
14.2706
31.2802
14.2714
14.2708
14.2714
31.2789
31.3039
14.2749
14.2736
14.2717
31.2969
31.2813
14.2717
14.272
31.2821
14.272
26.6336
26.6342
26.6342
26.6336
26.6434
26.6431
26.6424
26.6434
27.3067
27.742
27.1455
27.1638
24.673
27.261
12.2282
12.2282
24.5617
24.5763
24.5763
31.3555
14.286
14.2906
14.356
31.3872
14.2943
16.8712
13.6627
13.6627
11.6256
25.7335
13.5142
25.2084
25.2084
15.2072
31.3387
17.955
15.5704
26.6434
26.6424
26.6805
26.68
19.6777
29.1289
27.6664
27.3123
15.6926
18.1674
31.5204
18.0634
35.0952
30.0382
38.4879
36.3786
27.736
29.7931
32.8926
36.3542
28.7874
29.9628
38.7737
33.4369
24.7168
25.1389
29.3903
26.5851
24.5929
24.5295
24.4838
24.4977
24.4664
24.4691
24.4764
24.4712
24.462
24.4622
24.4633
24.4617
24.4651
24.4644
24.4632
24.4639
24.4625
24.4614
24.4617
24.4611
24.4624
24.4611
24.4612
24.4616
24.4643
24.4646
24.4631
24.4637
24.4618
24.4624
24.463
24.4618
14.3485
33.3131
29.8256
20.9932
15.2876
29.6031
17.7158
17.968
32.9786
24.4661
24.4668
24.4737
24.4696
24.5706
24.5172
24.4783
24.4894
24.6906
25.0932
28.491
31.6915
28.2554
28.53
32.6078
28.535
28.5247
32.5993
28.5276
28.4797
32.5779
28.5097
28.5269
32.5845
28.514
28.5309
32.605
28.5318
32.605
28.5316
28.5318
28.5309
32.605
28.5318
28.5316
32.605
28.5318
30.8534
34.2237
29.5694
29.682
36.3232
35.1041
36.6217
32.2885
29.8034
33.3583
31.8934
29.7973
15.6196
34.2291
30.5772
15.567
36.1246
32.0471
29.6228
34.276
29.7871
32.2438
36.6232
36.4971
18.0194
14.6574
17.0718
15.6629
18.033
15.6136
28.4992
31.31
28.4655
28.5244
32.5902
28.5262
28.5191
32.5759
28.517
29.0289
29.9069
32.6341
30.7435
37.7376
36.8895
21.3161
15.7933
31.5429
7.12149
7.12149
7.12168
7.12306
7.12149
7.12176
7.12186
7.12149
7.12073
7.12653
5.33349
5.33422
5.32347
5.32347
5.32347
5.33355
5.33357
5.32347
7.0475
7.14287
7.12149
7.12149
15.1158
7.12311
7.12093
7.12149
7.12149
26.5743
25.6152
26.1128
26.5584
26.1195
26.6687
25.971
26.665
15.9147
18.8992
15.6855
15.6691
15.7309
15.6844
19.3084
15.6508
15.6436
15.6442
15.6439
19.2861
19.2865
15.6439
15.6469
15.6433
15.6461
19.3005
15.6542
19.2959
15.6439
15.6439
15.6439
15.6439
15.6439
15.6439
15.6439
19.2861
15.6439
15.6457
15.6439
15.6464
19.2925
19.2916
15.65
15.6439
15.6439
15.6439
19.2863
15.6439
19.2859
15.6639
15.6799
15.6653
19.2946
15.6512
9.20717
9.06376
19.0432
26.7345
26.3424
26.6977
26.3011
26.4754
26.8847
26.4489
26.596
27.3247
26.8226
26.4864
27.2213
26.3698
26.7926
26.3214
26.7591
26.3624
27.1071
26.7187
26.7861
26.8058
26.6877
27.3087
26.4493
26.6772
26.4927
26.1154
27.0431
27.1099
26.3536
26.7795
26.7204
26.6966
26.1994
26.7013
26.0521
7.12149
7.12149
7.1173
7.12257
6.70119
14.2402
6.70067
14.2401
6.70093
6.70067
14.2397
6.70119
14.2402
6.70093
6.70072
14.2416
6.70119
6.70059
14.2415
6.70059
6.70213
14.2438
6.71197
14.243
6.71736
7.12148
7.12121
7.12149
7.12149
7.11985
7.11991
5.32341
5.32341
5.33353
6.70261
14.2463
6.70173
14.2419
6.70087
14.2411
6.70084
14.2427
6.70033
5.32347
5.32347
5.32347
5.32347
5.33357
6.70093
14.2403
6.70093
14.2397
6.70093
6.70093
14.2397
6.70093
14.2403
6.70093
26.7971
26.6574
26.7633
26.1429
7.12149
7.12149
13.2788
13.2788
13.2554
12.9861
12.9861
12.8353
12.8353
12.8356
12.8356
12.8355
12.8355
12.8355
12.8355
6.8327
14.0696
6.78548
6.58221
13.7036
6.61727
6.70094
14.2403
6.70119
14.2402
6.70093
12.8355
12.8355
12.8355
12.8355
12.8357
12.8357
12.8353
12.8353
12.8354
12.8354
12.8354
12.8354
12.8354
12.8354
12.8348
12.8348
6.70106
14.24
6.70081
14.24
6.70093
6.70107
14.2412
6.70079
14.2402
6.70093
12.8305
12.8305
12.8308
12.8308
12.834
12.834
12.8347
12.8347
6.79094
14.2642
6.93973
6.7361
14.254
7.12121
7.12204
7.12149
7.12149
12.5778
12.565
12.234
12.095
12.2874
12.1789
12.5573
12.5428
12.2636
12.2299
12.3498
12.5857
12.2958
12.2996
12.5724
12.5175
12.2172
12.3054
12.2152
12.5435
12.1592
13.8691
6.83223
6.83223
14.4439
17.818
15.198
17.4805
15.4263
17.1871
15.4282
17.1892
15.4519
17.2458
15.4273
17.229
15.4175
17.1631
15.4176
17.1631
15.4174
17.1638
15.4179
17.1625
15.421
17.1717
15.4205
17.1699
15.4189
17.1656
15.419
17.1656
15.4173
17.1628
15.4174
17.1628
15.4173
17.1628
15.4173
17.1628
15.4174
17.1631
15.4173
17.1625
15.4176
17.1631
15.417
17.1625
15.4196
17.1686
15.4207
17.1695
15.4185
17.1649
15.4184
17.164
15.4168
17.1625
15.4179
17.1631
15.4179
17.1635
15.4168
17.1622
15.4251
17.1828
15.4236
17.1804
15.3997
17.2093
15.3756
17.2211
14.5795
6.93783
6.93783
6.68604
12.3618
12.19
12.0973
14.7049
17.3752
12.1923
12.1171
8.7093
11.603
11.8235
15.054
17.2675
6.53568
6.56193
11.987
12.0143
11.9568
12.8368
12.8368
12.8438
12.8438
12.834
12.834
12.8344
12.8344
12.8355
12.8355
12.8353
12.8353
12.8351
12.8351
12.8352
12.8352
6.73053
14.2699
6.76115
6.724
14.2674
6.70133
14.2407
6.7008
14.2405
6.70119
12.8355
12.8355
12.8355
12.8355
12.8355
12.8355
12.8355
12.8355
12.8355
12.8355
12.8354
12.8354
12.8353
12.8353
12.8357
12.8357
6.70093
14.2397
6.70093
14.2403
6.70093
6.70079
14.2395
6.70107
14.2405
6.70093
12.1565
12.4196
12.1172
12.4694
12.0789
12.2344
12.1519
12.2635
12.5159
12.2394
12.1669
12.4998
13.0563
13.0563
12.0866
11.929
11.8987
11.9712
12.8441
12.8441
13.53
11.5618
11.794
6.85186
6.85186
14.1035
11.5957
6.49996
12.0047
12.2297
11.7693
11.3957
11.3348
11.9877
11.6096
11.782
12.3001
11.8752
11.6508
11.605
6.01927
11.7978
12.2657
12.2794
12.4248
13.5078
11.726
11.3945
11.5645
11.5645
8.9776
8.9776
6.2601
11.2943
8.41381
6.43227
12.5921
12.5757
12.2398
12.5505
12.2176
12.1723
14.3754
11.5806
11.6879
11.534
11.534
7.18621
14.1299
7.08931
11.6149
13.7072
7.10223
9.26072
12.2284
12.4982
12.1965
12.2829
12.1358
12.1678
11.706
11.4694
11.288
12.5531
12.2443
12.3127
12.3074
12.1658
12.5498
12.3416
12.2927
12.5798
12.303
12.1673
12.2216
12.5765
12.5743
12.2999
12.5484
12.2152
12.3045
12.3065
12.1713
12.5486
12.3028
12.3075
12.5765
12.3082
12.1302
12.2137
12.5782
12.583
12.3028
12.5469
12.2215
12.1674
12.1647
12.3031
12.2214
12.5803
12.5806
12.3011
12.3003
12.3011
12.578
12.3581
12.2418
12.5928
12.2179
12.5223
12.3117
12.2168
12.5342
12.1735
12.2254
12.548
12.3115
12.3055
12.3113
12.5754
12.168
12.3062
12.5534
26.6207
26.6205
26.6218
26.622
26.6227
26.6184
25.8966
25.8347
25.8
26.2065
25.8163
25.788
25.7804
25.7892
26.2103
25.8362
25.9063
25.7969
25.8362
25.991
25.9116
25.7973
25.7965
25.8995
25.8993
25.7911
25.9187
25.7858
25.7965
25.9047
14.7074
31.4925
31.2954
31.5004
31.33
26.7044
26.5104
26.5995
26.6216
26.6218
26.5075
26.5115
26.5121
26.5118
26.6221
26.622
26.5121
26.5121
26.5126
26.5121
26.6352
26.8479
26.0872
26.0269
26.0228
26.0237
26.0232
26.0222
26.0237
26.0234
26.5086
26.525
26.0261
26.0684
26.7404
14.6921
17.4873
17.7242
13.26
14.8614
14.8571
17.4317
17.4144
17.3918
17.3931
17.3906
17.3899
17.3916
17.3909
12.9443
12.9284
17.3899
17.3906
17.3903
17.3903
17.3916
17.3911
17.3903
17.3903
17.3917
17.3926
17.4341
17.4124
17.4923
17.7356
12.9285
12.9435
25.8667
25.7877
25.828
25.7935
13.2567
25.9504
25.8675
25.8021
26.4541
14.3072
29.7882
14.5123
14.3494
30.0246
14.5798
29.6235
14.3525
29.509
23.7597
29.6833
23.7104
13.5238
13.5235
14.5581
29.6682
23.7146
14.5614
29.6699
23.7103
29.6664
23.7102
13.5235
13.5235
14.5581
29.6666
23.712
13.5253
13.5375
14.5604
29.6699
23.7107
14.5578
29.6668
23.7436
13.5478
14.561
29.6772
14.3182
29.5425
25.9059
25.7904
25.8241
25.809
14.2801
29.7573
14.4991
29.9978
29.6113
14.2704
28.0523
14.0269
25.9978
25.8995
25.935
25.8805
25.8474
25.8818
25.8763
25.8426
25.8758
25.8798
25.8452
25.8787
25.8761
25.8426
25.8761
25.8763
25.8421
25.8758
25.8784
25.8452
25.8789
25.8758
25.8431
25.8763
14.2724
28.0466
25.8792
25.8467
25.8799
25.9803
25.8913
25.9259
26.5956
26.048
26.6078
26.6239
26.0623
26.6277
26.0611
26.6263
26.6256
26.6248
26.0587
26.6249
26.0493
26.6137
26.6184
26.0347
26.5833
26.5976
26.6137
26.0447
26.6137
26.0494
26.6166
26.6155
13.7008
25.834
26.5703
26.5697
26.5689
25.835
26.5666
25.8345
26.5709
26.5703
26.5709
25.8343
26.5704
25.8345
26.5632
26.5669
26.5704
25.8345
26.5692
25.9286
25.829
25.8012
26.1604
16.898
21.1851
14.653
13.6953
16.9468
21.5244
21.5247
16.9472
16.9177
21.475
21.5137
16.8414
28.6591
24.9547
31.6989
31.698
31.6992
31.6982
25.8669
25.8576
25.8604
25.8575
25.8569
25.8598
25.8582
25.8667
26.6545
26.6949
25.8419
25.8896
16.9485
21.527
16.948
21.5299
12.9258
12.9262
12.9263
12.9261
12.9259
12.9261
25.7915
25.8275
25.8763
25.8418
16.9542
21.5331
16.9532
21.5354
25.7899
25.8365
25.84
25.7844
25.8366
25.7782
25.7836
25.8339
25.7848
25.786
25.7787
25.7816
25.7787
25.7849
25.7778
25.7872
25.7769
25.7849
25.7778
25.7849
17.5043
17.5061
17.5037
17.504
17.504
17.5033
25.814
25.8686
25.792
25.7821
25.8435
25.8625
25.7952
25.8297
25.8315
6.98922
6.98922
21.497
27.4605
27.459
13.0069
27.4535
27.453
27.4539
27.4534
13.006
27.4529
27.4536
27.4581
27.4595
25.9075
25.7911
25.7949
25.8993
25.8993
25.7911
25.7911
25.8993
25.8748
25.7817
25.7799
25.7669
25.7792
25.7831
25.8787
25.7719
25.7889
25.7759
25.7694
25.7742
31.5847
31.6335
31.6982
31.6996
28.9778
29.9543
27.7206
32.5393
31.6991
31.6979
31.5745
31.6304
14.8808
14.8612
14.8609
14.8809
16.947
21.5246
16.9473
21.5253
16.0735
21.3733
16.6305
21.1499
26.4199
26.3823
26.2961
26.5777
25.8679
25.458
26.0201
25.3701
25.775
25.8931
25.7921
25.7692
25.7793
25.7869
25.8897
25.785
25.7823
25.7695
25.7789
25.7762
25.7599
25.7771
25.7761
25.7604
25.7783
25.7771
25.7694
25.7699
25.7682
25.7673
25.7689
25.7672
25.7599
25.7766
25.7766
25.7594
25.7766
25.7763
25.7668
25.7694
25.7668
25.7668
25.7694
25.7668
25.7599
25.7783
25.7766
25.7599
25.7766
25.7766
25.7694
25.7694
25.7677
25.7668
25.7694
25.7677
21.6817
13.2622
26.2682
19.4151
7.32171
7.32171
18.0326
34.8643
29.419
34.2052
26.509
26.5073
26.5162
26.5114
26.5121
26.5119
26.5121
26.5121
26.5124
26.5122
26.5205
26.5292
27.2514
28.5802
31.8097
31.8093
31.8978
28.5897
31.8329
31.6536
29.4424
32.9744
31.8478
28.7975
31.9942
26.2916
26.1429
26.7197
27.0541
30.6505
28.197
26.4116
28.7671
27.5312
16.9556
21.5383
16.948
21.5624
30.6395
30.399
23.6711
30.7692
30.7748
30.7726
30.7732
22.3679
22.363
22.3866
22.4191
14.8628
14.8623
30.772
30.7723
30.7723
30.7726
30.772
30.772
30.7594
30.767
30.5747
30.2733
29.839
16.9495
21.5322
16.9515
21.5313
22.3629
22.3629
22.3613
22.357
22.0656
22.2398
27.2498
26.7483
27.0569
26.6366
17.5701
17.8146
17.6182
17.5251
17.5196
17.5037
17.5037
26.7997
26.3773
26.3644
26.3807
26.4407
26.8597
27.6333
26.8881
29.757
28.8297
25.7822
27.654
17.1003
13.276
23.2819
13.3573
29.7761
14.6072
29.691
14.5853
29.6675
29.6698
14.5591
25.0958
25.0898
25.0748
25.0742
25.074
25.074
25.0742
25.0742
29.6672
29.667
29.6678
29.667
14.5588
25.0651
25.0647
25.0647
25.0651
25.0745
25.0745
25.0745
25.0735
25.8565
25.3857
25.225
25.2158
29.6856
29.6452
14.5793
25.0735
25.0747
25.1016
25.0941
25.7682
32.2225
28.8231
29.2298
26.9452
26.9746
27.9234
28.5034
30.803
28.3263
25.872
25.8954
25.9093
25.8492
25.8888
25.8836
25.8426
25.8772
25.8761
25.8443
25.8787
25.8789
25.8426
25.8761
25.8761
25.8431
25.8755
25.8766
25.8434
25.8778
25.8778
25.8426
25.8769
25.8761
13.3277
27.9372
28.3412
29.7533
29.3159
14.3753
31.541
25.849
25.8865
25.8833
25.8671
25.892
25.9036
26.043
26.6093
26.6111
26.0422
26.6124
26.6055
26.0456
26.6146
26.6137
26.0476
26.6146
26.6146
26.1592
26.6653
26.7852
26.3353
28.2639
27.2075
28.5434
31.5094
28.6657
28.7648
29.2731
31.8431
27.6445
32.1526
28.8294
26.4463
28.8077
27.6401
26.4449
26.1871
26.8801
26.5477
26.6863
26.8594
30.6528
28.5144
28.491
30.9554
28.3575
30.9273
28.3248
30.6924
30.8598
30.9659
28.3884
30.9759
28.3899
30.9907
30.9875
30.9917
28.3927
30.9926
30.9912
28.3922
30.992
30.992
28.3921
30.9916
28.3921
30.992
30.992
30.9926
28.3918
30.9914
30.9914
28.3924
30.9926
30.992
28.3912
30.9905
28.3912
30.9864
30.9899
30.9566
28.3887
30.9713
30.985
28.387
30.9817
33.72
30.5181
28.8107
29.7194
27.6208
32.1548
17.865
29.1363
29.136
14.6665
30.9415
28.3522
30.9038
30.6572
28.3191
30.8251
26.0763
26.6368
26.6194
30.0317
24.4382
24.4381
25.1708
25.1711
24.406
24.4084
25.1291
25.1264
30.1582
30.1571
13.8545
30.1565
30.1572
17.5223
30.196
30.215
13.8641
30.1423
30.222
26.6191
28.5143
28.5122
28.5152
26.6264
28.5216
26.6219
28.5169
28.517
28.5172
26.6221
28.5172
26.6224
28.5178
28.5177
28.5133
26.6304
28.526
24.4437
24.4443
25.1776
25.1812
13.9357
13.9358
13.9354
13.935
13.939
13.9377
24.4117
24.4082
25.1268
25.1343
13.9228
13.837
27.2982
25.8526
27.7336
25.381
19.6519
25.1936
25.1874
24.7144
24.6994
25.1632
25.1632
24.675
24.675
12.9968
18.4899
18.4779
18.4777
25.1632
25.1627
24.6746
24.675
25.1725
25.1722
24.675
24.6755
12.9964
13.0092
18.4777
18.4781
25.1715
25.1725
24.6755
24.6748
13.0007
18.4838
14.6727
15.6317
30.1578
30.1586
13.855
13.8547
30.161
30.1592
13.8555
17.5229
17.5221
30.1795
30.1651
13.8571
13.8581
30.1597
30.1621
13.8566
13.8556
35.8921
32.4115
30.0342
20.9601
31.5208
26.1269
26.1274
26.0806
26.0803
26.127
26.1277
26.081
26.0805
25.2644
25.2644
25.5853
25.5853
24.4385
24.4396
25.1725
25.1715
25.2644
25.2644
25.5852
25.5852
24.4016
24.393
25.112
25.1208
28.5942
14.0009
14.2157
29.655
30.8407
28.7373
14.0139
30.1922
30.2141
29.9114
30.1786
28.2651
28.0795
27.0118
26.6864
24.1473
24.6922
24.6469
25.066
28.6583
14.0045
30.032
30.9536
14.2209
28.7473
26.6189
28.5336
28.4939
26.6215
28.5166
28.5164
26.6218
28.5169
28.5169
26.622
28.5172
28.5172
26.6221
28.5173
28.5173
26.6395
28.5354
28.5323
27.3473
28.7203
29.1871
26.6176
26.0561
26.5907
26.0293
26.5628
26.5652
26.5588
26.0228
26.5588
26.0239
26.5599
26.5598
26.5589
26.0221
26.5581
26.0229
26.5581
26.5592
26.5596
26.0239
26.5598
26.0224
26.5593
26.5583
26.5617
26.0279
26.564
26.0456
26.6001
26.5805
28.9173
29.3864
26.9431
26.0817
29.9508
30.1543
26.8899
26.6907
29.8377
20.4787
18.6814
31.4061
26.0835
25.8775
25.988
26.7816
26.0977
26.1454
25.8555
25.9246
25.9445
26.5172
27.0643
26.2632
14.264
26.1442
26.1333
26.09
26.1019
26.1605
26.2134
26.175
26.1168
29.4323
17.3988
17.4062
29.5402
29.5135
17.3966
17.3944
29.5069
29.5177
17.3903
17.3906
29.5188
29.5196
17.3901
17.3904
29.5202
12.9318
29.5171
17.3906
17.3899
29.5173
29.5169
17.3903
17.3903
29.5175
29.5199
17.3901
17.391
29.5192
29.5175
17.3903
17.3903
29.519
25.2926
25.3365
25.6722
25.6198
24.4566
24.4821
25.2357
25.1992
25.2799
25.2705
25.5939
25.5991
29.5112
17.3961
17.3944
29.5085
29.4476
17.3915
17.3974
29.5197
25.3149
25.4956
25.5035
25.3077
25.3871
25.7185
25.5819
25.512
12.9308
26.2251
26.2432
26.2274
26.2015
26.1852
26.151
26.1099
26.1412
13.9606
13.9494
13.9397
13.9385
13.9351
13.9351
13.9354
13.9358
25.281
25.2721
25.5902
25.6013
24.4276
24.4406
25.1759
25.1626
25.2911
25.2971
25.6174
25.6085
25.3046
25.4932
25.3057
25.4917
25.2987
25.4754
25.4845
25.291
24.7759
25.2714
24.9121
25.1109
18.3396
22.4623
18.8625
23.4473
19.0977
19.099
23.9514
23.9491
19.0963
19.0935
23.9403
23.9461
26.1648
26.3119
26.0569
25.9794
19.1003
19.1002
23.9538
23.954
19.1001
19.0999
19.1006
23.9544
23.9535
19.097
19.0939
23.9413
23.9469
23.9516
23.949
19.0999
19.0992
18.5712
18.9208
23.0004
23.5946
13.9434
26.0634
26.2217
25.9763
25.8902
28.5989
26.678
26.6594
25.9029
26.0924
26.0791
26.0997
25.9101
26.0789
28.6
26.6789
26.6588
27.137
25.22
27.1376
25.2198
28.8066
26.7285
26.8774
28.6971
26.6916
26.8545
29.2776
29.1845
27.3957
26.1566
26.1454
26.3166
17.6124
31.3091
15.494
29.7493
29.2511
27.4871
26.1315
26.0235
26.2484
28.9284
26.7338
26.9108
27.7712
26.2516
26.6193
17.9688
15.6856
34.7649
31.5703
14.6672
12.9622
17.3212
23.781
13.5191
13.559
28.7956
28.7589
28.7097
28.7088
23.7106
13.5235
13.5249
23.7139
13.527
13.525
28.7395
28.7508
18.4783
18.4781
28.7087
28.7088
23.7101
13.5233
13.5238
12.9967
23.7102
13.5235
13.5235
28.7081
28.7088
28.7339
28.7539
23.7112
13.5243
13.5241
17.3681
12.9969
23.7102
13.5233
13.5244
28.7094
28.7083
18.4776
18.4776
28.7696
28.761
23.7786
13.5463
13.5583
17.4603
15.269
29.5918
29.7647
29.3458
17.4854
28.1049
27.5118
26.6922
25.911
25.8897
25.993
26.9686
26.0513
26.2554
26.4386
25.9562
26.1492
31.5791
14.3846
32.9691
28.4958
31.9746
28.5276
26.0555
26.623
26.6158
31.9932
28.5484
28.5349
32.0187
28.5514
28.5564
26.056
26.6203
26.6213
32.0094
28.5467
28.5496
26.0612
26.6257
26.6257
32.014
28.5521
28.5531
32.0157
28.5541
28.5541
32.0157
28.5523
28.5532
26.0595
26.6248
26.6249
32.0166
28.5541
28.5541
26.8753
27.6278
26.4339
25.8579
25.89
25.9516
26.1881
25.8883
26.0302
26.8572
26.027
26.1814
19.2844
16.8078
14.6574
29.1495
29.1356
28.9622
26.9643
27.7374
26.5278
28.7825
27.5962
26.8575
26.4232
31.7138
31.7055
14.281
28.8165
14.0179
28.8176
14.0179
30.1578
30.1566
30.1568
30.1573
13.8543
17.5219
17.5219
31.7137
31.7061
28.8171
14.0173
28.8171
14.0179
25.8713
25.7845
25.788
25.858
25.7773
25.7776
25.86
25.7795
25.7792
25.8566
25.777
25.7763
25.8571
25.7764
25.7769
25.7789
25.86
25.7792
25.8574
25.7778
25.777
25.7839
25.8725
25.784
28.4631
26.6043
26.5997
28.4756
26.607
26.6115
26.0556
25.8882
26.0571
26.0528
25.8873
26.0508
28.4839
26.6389
26.6181
28.4752
26.6066
26.6171
26.0869
25.9023
26.0672
26.0525
25.903
26.0685
25.1728
25.1721
24.6751
24.6758
25.172
25.1725
24.6753
24.6753
25.1627
25.1632
24.675
24.6746
25.1637
25.1715
24.6746
24.6755
25.1901
25.1826
24.7104
24.6943
31.0808
14.3481
31.0701
14.3399
14.3419
31.0273
14.3317
31.027
14.3328
14.3319
31.0233
14.3312
31.0225
14.3312
14.3312
31.0246
14.3318
31.0245
14.3318
14.3318
31.0225
14.3312
31.0227
14.3315
14.3309
31.0223
14.3315
31.0229
14.3312
14.3312
31.0242
14.3315
31.0242
14.3315
14.3321
31.0235
14.3309
31.0223
14.3315
14.3309
31.0257
14.3321
31.0267
14.3324
14.3321
14.3457
31.0759
31.062
14.3396
14.3402
32.1198
28.4645
28.4713
32.1129
28.466
28.4656
26.6072
26.0533
26.606
26.6046
26.058
26.6108
28.5752
32.1462
28.5066
26.721
26.0925
26.648
32.1314
28.4739
28.4816
26.0746
26.6163
26.625
32.1144
28.4645
28.4651
32.1146
28.4646
28.4652
26.6046
26.0515
26.6049
26.6047
26.0516
26.6049
32.116
28.4662
28.466
32.1153
28.4648
28.4657
26.6058
26.0521
26.6057
26.6048
26.0518
26.6053
14.2623
31.678
31.6648
28.7987
14.021
28.7985
14.02
30.1814
30.1691
30.1615
30.1663
17.5226
31.6937
31.6993
14.261
28.8028
14.0179
28.8032
14.0179
31.6909
31.6987
14.2607
28.8027
14.0179
28.8025
14.0179
30.1573
30.1578
30.1587
30.1585
13.855
17.5223
17.5216
31.6762
31.6602
14.261
28.7963
14.0192
14.2607
28.7947
14.0188
26.0811
26.0584
25.9664
25.9885
24.839
25.3171
25.187
24.9499
24.969
25.3517
25.3487
24.9728
24.9625
25.3432
25.3437
24.9623
24.9623
25.3427
25.3432
24.9618
24.9618
25.3427
24.9618
25.3427
24.9623
25.3422
25.3432
24.9613
24.9625
25.3429
25.3428
24.9646
25.9542
25.8796
25.8627
25.8442
25.7727
25.7723
25.7739
12.9274
12.9272
14.2989
29.5355
29.5114
29.501
29.4985
14.2685
14.2685
29.4905
29.4898
14.2692
14.2685
29.491
29.4991
14.2685
14.2685
29.4901
29.4905
29.4896
29.4903
14.2686
14.2688
29.4912
29.4976
29.4903
29.49
14.2682
14.2679
29.4964
29.4966
29.5214
29.5021
25.8343
25.8947
25.8947
25.8999
25.8313
25.8962
25.8345
25.8947
25.8947
25.8952
25.8343
25.8942
25.8991
25.8316
25.8965
25.8947
25.8345
25.8947
25.7776
25.774
25.7718
25.7732
25.7994
25.8417
12.9258
12.9261
12.9263
12.9261
12.9258
12.9261
27.4952
27.4556
13.9467
13.9465
27.4529
13.9457
27.453
13.9463
13.9465
27.4539
13.9454
13.9457
27.4534
13.9451
27.4529
13.9463
27.4534
13.946
27.4547
13.9461
27.4908
13.9523
25.8816
25.8142
25.8194
25.7643
25.7685
25.7703
25.8707
25.8049
25.8118
25.772
25.7748
25.7765
25.7736
25.7743
25.7744
25.7744
25.7745
25.7745
25.8128
25.8833
25.8203
25.7647
25.7686
25.7707
25.8952
25.8265
25.8301
25.7748
25.7725
25.7769
25.7599
25.767
25.7665
25.7619
25.7677
25.7682
25.7748
25.7699
25.7753
25.7753
25.7689
25.7743
25.7599
25.7668
25.7668
25.7594
25.7673
25.7663
25.7748
25.7694
25.7748
25.7748
25.7694
25.7748
25.7617
25.7677
25.7677
25.7604
25.7665
25.767
25.7748
25.7694
25.7748
25.7748
25.7694
25.7748
25.8625
25.8003
25.7959
25.7963
25.7962
25.7952
25.7968
25.7964
25.6991
25.6996
25.6993
25.6997
25.772
25.7727
25.772
25.7716
25.7718
25.7711
25.7733
25.774